# vtk DataFile Version 3.98
Exemple RECTILINEAR_GRID
ASCII
DATASET UNSTRUCTURED_GRID
POINTS 1111 float 
0.0 0.0 0.0
10.0 0.0 0.0
20.0 0.0 0.0
30.0 0.0 0.0
40.0 0.0 0.0
50.0 0.0 0.0
60.0 0.0 0.0
70.0 0.0 0.0
80.0 0.0 0.0
90.0 0.0 0.0
100.0 0.0 0.0
110.0 0.0 0.0
120.0 0.0 0.0
130.0 0.0 0.0
140.0 0.0 0.0
150.0 0.0 0.0
160.0 0.0 0.0
170.0 0.0 0.0
180.0 0.0 0.0
190.0 0.0 0.0
200.0 0.0 0.0
210.0 0.0 0.0
220.0 0.0 0.0
230.0 0.0 0.0
240.0 0.0 0.0
250.0 0.0 0.0
260.0 0.0 0.0
270.0 0.0 0.0
280.0 0.0 0.0
290.0 0.0 0.0
300.0 0.0 0.0
310.0 0.0 0.0
320.0 0.0 0.0
330.0 0.0 0.0
340.0 0.0 0.0
350.0 0.0 0.0
360.0 0.0 0.0
370.0 0.0 0.0
380.0 0.0 0.0
390.0 0.0 0.0
400.0 0.0 0.0
410.0 0.0 0.0
420.0 0.0 0.0
430.0 0.0 0.0
440.0 0.0 0.0
450.0 0.0 0.0
460.0 0.0 0.0
470.0 0.0 0.0
480.0 0.0 0.0
490.0 0.0 0.0
500.0 0.0 0.0
510.0 0.0 0.0
520.0 0.0 0.0
530.0 0.0 0.0
540.0 0.0 0.0
550.0 0.0 0.0
560.0 0.0 0.0
570.0 0.0 0.0
580.0 0.0 0.0
590.0 0.0 0.0
600.0 0.0 0.0
610.0 0.0 0.0
620.0 0.0 0.0
630.0 0.0 0.0
640.0 0.0 0.0
650.0 0.0 0.0
660.0 0.0 0.0
670.0 0.0 0.0
680.0 0.0 0.0
690.0 0.0 0.0
700.0 0.0 0.0
710.0 0.0 0.0
720.0 0.0 0.0
730.0 0.0 0.0
740.0 0.0 0.0
750.0 0.0 0.0
760.0 0.0 0.0
770.0 0.0 0.0
780.0 0.0 0.0
790.0 0.0 0.0
800.0 0.0 0.0
810.0 0.0 0.0
820.0 0.0 0.0
830.0 0.0 0.0
840.0 0.0 0.0
850.0 0.0 0.0
860.0 0.0 0.0
870.0 0.0 0.0
880.0 0.0 0.0
890.0 0.0 0.0
900.0 0.0 0.0
910.0 0.0 0.0
920.0 0.0 0.0
930.0 0.0 0.0
940.0 0.0 0.0
950.0 0.0 0.0
960.0 0.0 0.0
970.0 0.0 0.0
980.0 0.0 0.0
990.0 0.0 0.0
1000.0 0.0 0.0
0.0 50.0 0.0
10.0 50.0 0.0
20.0 50.0 0.0
30.0 50.0 0.0
40.0 50.0 0.0
50.0 50.0 0.0
60.0 50.0 0.0
70.0 50.0 0.0
80.0 50.0 0.0
90.0 50.0 0.0
100.0 50.0 0.0
110.0 50.0 0.0
120.0 50.0 0.0
130.0 50.0 0.0
140.0 50.0 0.0
150.0 50.0 0.0
160.0 50.0 0.0
170.0 50.0 0.0
180.0 50.0 0.0
190.0 50.0 0.0
200.0 50.0 0.0
210.0 50.0 0.0
220.0 50.0 0.0
230.0 50.0 0.0
240.0 50.0 0.0
250.0 50.0 0.0
260.0 50.0 0.0
270.0 50.0 0.0
280.0 50.0 0.0
290.0 50.0 0.0
300.0 50.0 0.0
310.0 50.0 0.0
320.0 50.0 0.0
330.0 50.0 0.0
340.0 50.0 0.0
350.0 50.0 0.0
360.0 50.0 0.0
370.0 50.0 0.0
380.0 50.0 0.0
390.0 50.0 0.0
400.0 50.0 0.0
410.0 50.0 0.0
420.0 50.0 0.0
430.0 50.0 0.0
440.0 50.0 0.0
450.0 50.0 0.0
460.0 50.0 0.0
470.0 50.0 0.0
480.0 50.0 0.0
490.0 50.0 0.0
500.0 50.0 0.0
510.0 50.0 0.0
520.0 50.0 0.0
530.0 50.0 0.0
540.0 50.0 0.0
550.0 50.0 0.0
560.0 50.0 0.0
570.0 50.0 0.0
580.0 50.0 0.0
590.0 50.0 0.0
600.0 50.0 0.0
610.0 50.0 0.0
620.0 50.0 0.0
630.0 50.0 0.0
640.0 50.0 0.0
650.0 50.0 0.0
660.0 50.0 0.0
670.0 50.0 0.0
680.0 50.0 0.0
690.0 50.0 0.0
700.0 50.0 0.0
710.0 50.0 0.0
720.0 50.0 0.0
730.0 50.0 0.0
740.0 50.0 0.0
750.0 50.0 0.0
760.0 50.0 0.0
770.0 50.0 0.0
780.0 50.0 0.0
790.0 50.0 0.0
800.0 50.0 0.0
810.0 50.0 0.0
820.0 50.0 0.0
830.0 50.0 0.0
840.0 50.0 0.0
850.0 50.0 0.0
860.0 50.0 0.0
870.0 50.0 0.0
880.0 50.0 0.0
890.0 50.0 0.0
900.0 50.0 0.0
910.0 50.0 0.0
920.0 50.0 0.0
930.0 50.0 0.0
940.0 50.0 0.0
950.0 50.0 0.0
960.0 50.0 0.0
970.0 50.0 0.0
980.0 50.0 0.0
990.0 50.0 0.0
1000.0 50.0 0.0
0.0 100.0 0.0
10.0 100.0 0.0
20.0 100.0 0.0
30.0 100.0 0.0
40.0 100.0 0.0
50.0 100.0 0.0
60.0 100.0 0.0
70.0 100.0 0.0
80.0 100.0 0.0
90.0 100.0 0.0
100.0 100.0 0.0
110.0 100.0 0.0
120.0 100.0 0.0
130.0 100.0 0.0
140.0 100.0 0.0
150.0 100.0 0.0
160.0 100.0 0.0
170.0 100.0 0.0
180.0 100.0 0.0
190.0 100.0 0.0
200.0 100.0 0.0
210.0 100.0 0.0
220.0 100.0 0.0
230.0 100.0 0.0
240.0 100.0 0.0
250.0 100.0 0.0
260.0 100.0 0.0
270.0 100.0 0.0
280.0 100.0 0.0
290.0 100.0 0.0
300.0 100.0 0.0
310.0 100.0 0.0
320.0 100.0 0.0
330.0 100.0 0.0
340.0 100.0 0.0
350.0 100.0 0.0
360.0 100.0 0.0
370.0 100.0 0.0
380.0 100.0 0.0
390.0 100.0 0.0
400.0 100.0 0.0
410.0 100.0 0.0
420.0 100.0 0.0
430.0 100.0 0.0
440.0 100.0 0.0
450.0 100.0 0.0
460.0 100.0 0.0
470.0 100.0 0.0
480.0 100.0 0.0
490.0 100.0 0.0
500.0 100.0 0.0
510.0 100.0 0.0
520.0 100.0 0.0
530.0 100.0 0.0
540.0 100.0 0.0
550.0 100.0 0.0
560.0 100.0 0.0
570.0 100.0 0.0
580.0 100.0 0.0
590.0 100.0 0.0
600.0 100.0 0.0
610.0 100.0 0.0
620.0 100.0 0.0
630.0 100.0 0.0
640.0 100.0 0.0
650.0 100.0 0.0
660.0 100.0 0.0
670.0 100.0 0.0
680.0 100.0 0.0
690.0 100.0 0.0
700.0 100.0 0.0
710.0 100.0 0.0
720.0 100.0 0.0
730.0 100.0 0.0
740.0 100.0 0.0
750.0 100.0 0.0
760.0 100.0 0.0
770.0 100.0 0.0
780.0 100.0 0.0
790.0 100.0 0.0
800.0 100.0 0.0
810.0 100.0 0.0
820.0 100.0 0.0
830.0 100.0 0.0
840.0 100.0 0.0
850.0 100.0 0.0
860.0 100.0 0.0
870.0 100.0 0.0
880.0 100.0 0.0
890.0 100.0 0.0
900.0 100.0 0.0
910.0 100.0 0.0
920.0 100.0 0.0
930.0 100.0 0.0
940.0 100.0 0.0
950.0 100.0 0.0
960.0 100.0 0.0
970.0 100.0 0.0
980.0 100.0 0.0
990.0 100.0 0.0
1000.0 100.0 0.0
0.0 150.0 0.0
10.0 150.0 0.0
20.0 150.0 0.0
30.0 150.0 0.0
40.0 150.0 0.0
50.0 150.0 0.0
60.0 150.0 0.0
70.0 150.0 0.0
80.0 150.0 0.0
90.0 150.0 0.0
100.0 150.0 0.0
110.0 150.0 0.0
120.0 150.0 0.0
130.0 150.0 0.0
140.0 150.0 0.0
150.0 150.0 0.0
160.0 150.0 0.0
170.0 150.0 0.0
180.0 150.0 0.0
190.0 150.0 0.0
200.0 150.0 0.0
210.0 150.0 0.0
220.0 150.0 0.0
230.0 150.0 0.0
240.0 150.0 0.0
250.0 150.0 0.0
260.0 150.0 0.0
270.0 150.0 0.0
280.0 150.0 0.0
290.0 150.0 0.0
300.0 150.0 0.0
310.0 150.0 0.0
320.0 150.0 0.0
330.0 150.0 0.0
340.0 150.0 0.0
350.0 150.0 0.0
360.0 150.0 0.0
370.0 150.0 0.0
380.0 150.0 0.0
390.0 150.0 0.0
400.0 150.0 0.0
410.0 150.0 0.0
420.0 150.0 0.0
430.0 150.0 0.0
440.0 150.0 0.0
450.0 150.0 0.0
460.0 150.0 0.0
470.0 150.0 0.0
480.0 150.0 0.0
490.0 150.0 0.0
500.0 150.0 0.0
510.0 150.0 0.0
520.0 150.0 0.0
530.0 150.0 0.0
540.0 150.0 0.0
550.0 150.0 0.0
560.0 150.0 0.0
570.0 150.0 0.0
580.0 150.0 0.0
590.0 150.0 0.0
600.0 150.0 0.0
610.0 150.0 0.0
620.0 150.0 0.0
630.0 150.0 0.0
640.0 150.0 0.0
650.0 150.0 0.0
660.0 150.0 0.0
670.0 150.0 0.0
680.0 150.0 0.0
690.0 150.0 0.0
700.0 150.0 0.0
710.0 150.0 0.0
720.0 150.0 0.0
730.0 150.0 0.0
740.0 150.0 0.0
750.0 150.0 0.0
760.0 150.0 0.0
770.0 150.0 0.0
780.0 150.0 0.0
790.0 150.0 0.0
800.0 150.0 0.0
810.0 150.0 0.0
820.0 150.0 0.0
830.0 150.0 0.0
840.0 150.0 0.0
850.0 150.0 0.0
860.0 150.0 0.0
870.0 150.0 0.0
880.0 150.0 0.0
890.0 150.0 0.0
900.0 150.0 0.0
910.0 150.0 0.0
920.0 150.0 0.0
930.0 150.0 0.0
940.0 150.0 0.0
950.0 150.0 0.0
960.0 150.0 0.0
970.0 150.0 0.0
980.0 150.0 0.0
990.0 150.0 0.0
1000.0 150.0 0.0
0.0 200.0 0.0
10.0 200.0 0.0
20.0 200.0 0.0
30.0 200.0 0.0
40.0 200.0 0.0
50.0 200.0 0.0
60.0 200.0 0.0
70.0 200.0 0.0
80.0 200.0 0.0
90.0 200.0 0.0
100.0 200.0 0.0
110.0 200.0 0.0
120.0 200.0 0.0
130.0 200.0 0.0
140.0 200.0 0.0
150.0 200.0 0.0
160.0 200.0 0.0
170.0 200.0 0.0
180.0 200.0 0.0
190.0 200.0 0.0
200.0 200.0 0.0
210.0 200.0 0.0
220.0 200.0 0.0
230.0 200.0 0.0
240.0 200.0 0.0
250.0 200.0 0.0
260.0 200.0 0.0
270.0 200.0 0.0
280.0 200.0 0.0
290.0 200.0 0.0
300.0 200.0 0.0
310.0 200.0 0.0
320.0 200.0 0.0
330.0 200.0 0.0
340.0 200.0 0.0
350.0 200.0 0.0
360.0 200.0 0.0
370.0 200.0 0.0
380.0 200.0 0.0
390.0 200.0 0.0
400.0 200.0 0.0
410.0 200.0 0.0
420.0 200.0 0.0
430.0 200.0 0.0
440.0 200.0 0.0
450.0 200.0 0.0
460.0 200.0 0.0
470.0 200.0 0.0
480.0 200.0 0.0
490.0 200.0 0.0
500.0 200.0 0.0
510.0 200.0 0.0
520.0 200.0 0.0
530.0 200.0 0.0
540.0 200.0 0.0
550.0 200.0 0.0
560.0 200.0 0.0
570.0 200.0 0.0
580.0 200.0 0.0
590.0 200.0 0.0
600.0 200.0 0.0
610.0 200.0 0.0
620.0 200.0 0.0
630.0 200.0 0.0
640.0 200.0 0.0
650.0 200.0 0.0
660.0 200.0 0.0
670.0 200.0 0.0
680.0 200.0 0.0
690.0 200.0 0.0
700.0 200.0 0.0
710.0 200.0 0.0
720.0 200.0 0.0
730.0 200.0 0.0
740.0 200.0 0.0
750.0 200.0 0.0
760.0 200.0 0.0
770.0 200.0 0.0
780.0 200.0 0.0
790.0 200.0 0.0
800.0 200.0 0.0
810.0 200.0 0.0
820.0 200.0 0.0
830.0 200.0 0.0
840.0 200.0 0.0
850.0 200.0 0.0
860.0 200.0 0.0
870.0 200.0 0.0
880.0 200.0 0.0
890.0 200.0 0.0
900.0 200.0 0.0
910.0 200.0 0.0
920.0 200.0 0.0
930.0 200.0 0.0
940.0 200.0 0.0
950.0 200.0 0.0
960.0 200.0 0.0
970.0 200.0 0.0
980.0 200.0 0.0
990.0 200.0 0.0
1000.0 200.0 0.0
0.0 250.0 0.0
10.0 250.0 0.0
20.0 250.0 0.0
30.0 250.0 0.0
40.0 250.0 0.0
50.0 250.0 0.0
60.0 250.0 0.0
70.0 250.0 0.0
80.0 250.0 0.0
90.0 250.0 0.0
100.0 250.0 0.0
110.0 250.0 0.0
120.0 250.0 0.0
130.0 250.0 0.0
140.0 250.0 0.0
150.0 250.0 0.0
160.0 250.0 0.0
170.0 250.0 0.0
180.0 250.0 0.0
190.0 250.0 0.0
200.0 250.0 0.0
210.0 250.0 0.0
220.0 250.0 0.0
230.0 250.0 0.0
240.0 250.0 0.0
250.0 250.0 0.0
260.0 250.0 0.0
270.0 250.0 0.0
280.0 250.0 0.0
290.0 250.0 0.0
300.0 250.0 0.0
310.0 250.0 0.0
320.0 250.0 0.0
330.0 250.0 0.0
340.0 250.0 0.0
350.0 250.0 0.0
360.0 250.0 0.0
370.0 250.0 0.0
380.0 250.0 0.0
390.0 250.0 0.0
400.0 250.0 0.0
410.0 250.0 0.0
420.0 250.0 0.0
430.0 250.0 0.0
440.0 250.0 0.0
450.0 250.0 0.0
460.0 250.0 0.0
470.0 250.0 0.0
480.0 250.0 0.0
490.0 250.0 0.0
500.0 250.0 0.0
510.0 250.0 0.0
520.0 250.0 0.0
530.0 250.0 0.0
540.0 250.0 0.0
550.0 250.0 0.0
560.0 250.0 0.0
570.0 250.0 0.0
580.0 250.0 0.0
590.0 250.0 0.0
600.0 250.0 0.0
610.0 250.0 0.0
620.0 250.0 0.0
630.0 250.0 0.0
640.0 250.0 0.0
650.0 250.0 0.0
660.0 250.0 0.0
670.0 250.0 0.0
680.0 250.0 0.0
690.0 250.0 0.0
700.0 250.0 0.0
710.0 250.0 0.0
720.0 250.0 0.0
730.0 250.0 0.0
740.0 250.0 0.0
750.0 250.0 0.0
760.0 250.0 0.0
770.0 250.0 0.0
780.0 250.0 0.0
790.0 250.0 0.0
800.0 250.0 0.0
810.0 250.0 0.0
820.0 250.0 0.0
830.0 250.0 0.0
840.0 250.0 0.0
850.0 250.0 0.0
860.0 250.0 0.0
870.0 250.0 0.0
880.0 250.0 0.0
890.0 250.0 0.0
900.0 250.0 0.0
910.0 250.0 0.0
920.0 250.0 0.0
930.0 250.0 0.0
940.0 250.0 0.0
950.0 250.0 0.0
960.0 250.0 0.0
970.0 250.0 0.0
980.0 250.0 0.0
990.0 250.0 0.0
1000.0 250.0 0.0
0.0 300.0 0.0
10.0 300.0 0.0
20.0 300.0 0.0
30.0 300.0 0.0
40.0 300.0 0.0
50.0 300.0 0.0
60.0 300.0 0.0
70.0 300.0 0.0
80.0 300.0 0.0
90.0 300.0 0.0
100.0 300.0 0.0
110.0 300.0 0.0
120.0 300.0 0.0
130.0 300.0 0.0
140.0 300.0 0.0
150.0 300.0 0.0
160.0 300.0 0.0
170.0 300.0 0.0
180.0 300.0 0.0
190.0 300.0 0.0
200.0 300.0 0.0
210.0 300.0 0.0
220.0 300.0 0.0
230.0 300.0 0.0
240.0 300.0 0.0
250.0 300.0 0.0
260.0 300.0 0.0
270.0 300.0 0.0
280.0 300.0 0.0
290.0 300.0 0.0
300.0 300.0 0.0
310.0 300.0 0.0
320.0 300.0 0.0
330.0 300.0 0.0
340.0 300.0 0.0
[...]
CELL_DATA 1000
SCALARS permeability float
LOOKUP_TABLE default
1e-12
1e-12
1e-12
1e-12
1e-12
1e-12
1e-12
1e-12
1e-12
1e-12
1e-12
1e-12
1e-12
1e-12
1e-12
1e-12
1e-12
1e-12
1e-12
1e-12
1e-12
1e-12
1e-12
1e-12
1e-12
1e-12
1e-12
1e-12
1e-12
1e-12
1e-12
1e-12
1e-12
1e-12
1e-12
1e-12
1e-12
1e-12
1e-12
1e-12
1e-12
1e-12
1e-12
1e-12
1e-12
1e-12
1e-12
1e-12
1e-12
1e-12
1e-12
1e-12
1e-12
1e-12
1e-12
1e-12
1e-12
1e-12
1e-12
1e-12
1e-12
1e-12
1e-12
1e-12
1e-12
1e-12
1e-12
1e-12
1e-12
1e-12
1e-12
1e-12
1e-12
1e-12
1e-12
1e-12
1e-12
1e-12
1e-12
1e-12
1e-12
1e-12
1e-12
1e-12
1e-12
1e-12
1e-12
1e-12
1e-12
1e-12
1e-12
1e-12
1e-12
1e-12
1e-12
1e-12
1e-12
1e-12
1e-12
1e-12
1e-12
1e-12
1e-12
1e-12
1e-12
1e-12
1e-12
1e-12
1e-12
1e-12
1e-12
1e-12
1e-12
1e-12
1e-12
1e-12
1e-12
1e-12
1e-12
1e-12
1e-12
1e-12
1e-12
1e-12
1e-12
1e-12
1e-12
1e-12
1e-12
1e-12
1e-12
1e-12
1e-12
1e-12
1e-12
1e-12
1e-12
1e-12
1e-12
1e-12
1e-12
1e-12
1e-12
1e-12
1e-12
1e-12
1e-12
1e-12
1e-12
1e-12
1e-12
1e-12
1e-12
1e-12
1e-12
1e-12
1e-12
1e-12
1e-12
1e-12
1e-12
1e-12
1e-12
1e-12
1e-12
1e-12
1e-12
1e-12
1e-12
1e-12
1e-12
1e-12
1e-12
1e-12
1e-12
1e-12
1e-12
1e-12
1e-12
1e-12
1e-12
1e-12
1e-12
1e-12
1e-12
1e-12
1e-12
1e-12
1e-12
1e-12
1e-12
1e-12
1e-12
1e-12
1e-12
1e-12
1e-12
1e-12
1e-12
1e-12
1e-12
1e-12
1e-12
1e-12
1e-12
1e-12
1e-12
1e-12
1e-12
1e-12
1e-12
1e-12
1e-12
1e-12
1e-12
1e-12
1e-12
1e-12
1e-12
1e-12
1e-12
1e-12
1e-12
1e-12
1e-12
1e-12
1e-12
1e-12
1e-12
1e-12
1e-12
1e-12
1e-12
1e-12
1e-12
1e-12
1e-12
1e-12
1e-12
1e-12
1e-12
1e-12
1e-12
1e-12
1e-12
1e-12
1e-12
1e-12
1e-12
1e-12
1e-12
1e-12
1e-12
1e-12
1e-12
1e-12
1e-12
1e-12
1e-12
1e-12
1e-12
1e-12
1e-12
1e-12
1e-12
1e-12
1e-12
1e-12
1e-12
1e-12
1e-12
1e-12
1e-12
1e-12
1e-12
1e-12
1e-12
1e-12
1e-12
1e-12
1e-12
1e-12
1e-12
1e-12
1e-12
1e-12
1e-12
1e-12
1e-12
1e-12
1e-12
1e-12
1e-12
1e-12
1e-12
1e-12
1e-12
1e-12
1e-12
1e-12
1e-12
1e-12
1e-12
1e-12
1e-12
1e-12
1e-12
1e-12
1e-12
1e-12
1e-12
1e-12
1e-12
1e-12
1e-12
1e-12
1e-12
1e-12
1e-12
1e-12
1e-12
1e-12
1e-12
1e-12
1e-12
1e-12
1e-12
1e-12
1e-12
1e-12
1e-12
1e-12
1e-12
1e-12
1e-12
1e-12
1e-12
1e-12
1e-12
1e-12
1e-12
1e-12
1e-12
1e-12
1e-12
1e-12
1e-12
1e-12
1e-12
1e-12
1e-12
1e-12
1e-12
1e-12
1e-12
1e-12
1e-12
1e-12
1e-12
1e-12
1e-12
1e-12
1e-12
1e-12
1e-12
1e-12
1e-12
1e-12
1e-12
1e-12
1e-12
1e-12
1e-12
1e-12
1e-12
1e-12
1e-12
1e-12
1e-12
1e-12
1e-12
1e-12
1e-12
1e-12
1e-12
1e-12
1e-12
1e-12
1e-12
1e-12
1e-12
1e-12
1e-12
1e-12
1e-12
1e-12
1e-12
1e-12
1e-12
1e-12
1e-12
1e-12
1e-12
1e-12
1e-12
1e-12
1e-12
1e-12
1e-12
1e-12
1e-12
1e-12
1e-12
1e-12
1e-12
1e-12
1e-12
1e-12
1e-12
1e-12
1e-12
1e-12
1e-12
1e-12
1e-12
1e-12
1e-12
1e-12
1e-12
1e-12
1e-12
1e-12
1e-12
1e-12
1e-12
1e-12
1e-12
1e-12
1e-12
1e-12
1e-12
1e-12
1e-12
1e-12
1e-12
1e-12
1e-12
1e-12
1e-12
1e-12
1e-12
1e-12
1e-12
1e-12
1e-12
1e-12
1e-12
1e-12
1e-12
1e-12
1e-12
1e-12
1e-12
1e-12
1e-12
1e-12
1e-12
1e-12
1e-12
1e-12
1e-12
1e-12
1e-12
1e-12
1e-12
1e-12
1e-12
1e-12
1e-12
1e-12
1e-12
1e-12
1e-12
1e-12
1e-12
1e-12
1e-12
1e-12
1e-12
1e-12
1e-12
1e-12
1e-12
1e-12
1e-12
1e-12
1e-12
1e-12
1e-12
1e-12
1e-12
1e-12
1e-12
1e-12
1e-12
1e-12
1e-12
1e-12
1e-12
1e-12
1e-12
1e-12
1e-12
1e-12
1e-12
1e-12
1e-12
1e-12
1e-12
1e-12
1e-12
1e-12
1e-12
1e-12
1e-12
1e-12
1e-12
1e-12
1e-12
1e-12
1e-12
1e-12
1e-12
1e-12
1e-12
1e-12
1e-12
1e-12
1e-12
1e-12
1e-12
1e-12
1e-12
1e-12
1e-12
1e-12
1e-12
1e-12
1e-12
1e-12
1e-12
1e-12
1e-12
1e-12
1e-12
1e-12
1e-12
1e-12
1e-12
1e-12
1e-12
1e-12
1e-12
1e-12
1e-12
1e-12
1e-12
1e-12
1e-12
1e-12
1e-12
1e-12
1e-12
1e-12
1e-12
1e-12
1e-12
1e-12
1e-12
1e-12
1e-12
1e-12
1e-12
1e-12
1e-12
1e-12
1e-12
1e-12
1e-12
1e-12
1e-12
1e-12
1e-12
1e-12
1e-12
1e-12
1e-12
1e-12
1e-12
1e-12
1e-12
1e-12
1e-12
1e-12
1e-12
1e-12
1e-12
1e-12
1e-12
1e-12
1e-12
1e-12
1e-12
1e-12
1e-12
1e-12
1e-12
1e-12
1e-12
1e-12
1e-12
1e-12
1e-12
1e-12
1e-12
1e-12
1e-12
1e-12
1e-12
1e-12
1e-12
1e-12
1e-12
1e-12
1e-12
1e-12
1e-12
1e-12
1e-12
1e-12
1e-12
1e-12
1e-12
1e-12
1e-12
1e-12
1e-12
1e-12
1e-12
1e-12
1e-12
1e-12
1e-12
1e-12
1e-12
1e-12
1e-12
1e-12
1e-12
1e-12
1e-12
1e-12
1e-12
1e-12
1e-12
1e-12
1e-12
1e-12
1e-12
1e-12
1e-12
1e-12
1e-12
1e-12
1e-12
1e-12
1e-12
1e-12
1e-12
1e-12
1e-12
1e-12
1e-12
1e-12
1e-12
1e-12
1e-12
1e-12
1e-12
1e-12
1e-12
1e-12
1e-12
1e-12
1e-12
1e-12
1e-12
1e-12
1e-12
1e-12
1e-12
1e-12
1e-12
1e-12
1e-12
1e-12
1e-12
1e-12
1e-12
1e-12
1e-12
1e-12
1e-12
1e-12
1e-12
1e-12
1e-12
1e-12
1e-12
1e-12
1e-12
1e-12
1e-12
1e-12
1e-12
1e-12
1e-12
1e-12
1e-12
1e-12
1e-12
1e-12
1e-12
1e-12
1e-12
1e-12
1e-12
1e-12
1e-12
1e-12
1e-12
1e-12
1e-12
1e-12
1e-12
1e-12
1e-12
1e-12
1e-12
1e-12
1e-12
1e-12
1e-12
1e-12
1e-12
1e-12
1e-12
1e-12
1e-12
1e-12
1e-12
1e-12
1e-12
1e-12
1e-12
1e-12
1e-12
1e-12
1e-12
1e-12
1e-12
1e-12
1e-12
1e-12
1e-12
1e-12
1e-12
1e-12
1e-12
1e-12
1e-12
1e-12
1e-12
1e-12
1e-12
1e-12
1e-12
1e-12
1e-12
1e-12
1e-12
1e-12
1e-12
1e-12
1e-12
1e-12
1e-12
1e-12
1e-12
1e-12
1e-12
1e-12
1e-12
1e-12
1e-12
1e-12
1e-12
1e-12
1e-12
1e-12
1e-12
1e-12
1e-12
1e-12
1e-12
1e-12
1e-12
1e-12
1e-12
1e-12
1e-12
1e-12
1e-12
1e-12
1e-12
1e-12
1e-12
1e-12
1e-12
1e-12
1e-12
1e-12
1e-12
1e-12
1e-12
1e-12
1e-12
1e-12
1e-12
1e-12
1e-12
1e-12
1e-12
1e-12
1e-12
1e-12
1e-12
1e-12
1e-12
1e-12
1e-12
1e-12
1e-12
1e-12
1e-12
1e-12
1e-12
1e-12
1e-12
1e-12
1e-12
1e-12
1e-12
1e-12
1e-12
1e-12
1e-12
1e-12
1e-12
1e-12
1e-12
1e-12
1e-12
1e-12
1e-12
1e-12
1e-12
1e-12
1e-12
1e-12
1e-12
1e-12
1e-12
1e-12
1e-12
1e-12
1e-12
1e-12
1e-12
1e-12
1e-12
1e-12
1e-12
1e-12
1e-12
1e-12
1e-12
1e-12
1e-12
1e-12
1e-12
1e-12
1e-12
1e-12
1e-12
1e-12
1e-12
1e-12
1e-12
1e-12
1e-12
1e-12
1e-12
1e-12
1e-12
1e-12
1e-12
1e-12
1e-12
1e-12
1e-12
1e-12
1e-12
1e-12
1e-12
1e-12
1e-12
1e-12
1e-12
1e-12
1e-12
1e-12
1e-12
1e-12
1e-12
1e-12
1e-12
1e-12
1e-12
1e-12
1e-12
1e-12
1e-12
1e-12
1e-12
1e-12
1e-12
1e-12
1e-12
1e-12
1e-12
1e-12
1e-12
1e-12
1e-12
1e-12
1e-12
1e-12
1e-12
1e-12
1e-12
1e-12
1e-12
1e-12
1e-12
1e-12
1e-12
1e-12
1e-12
1e-12
1e-12
1e-12
1e-12
1e-12
1e-12
1e-12
1e-12
1e-12
1e-12
1e-12
1e-12
1e-12
1e-12
1e-12
1e-12
1e-12
1e-12
1e-12
1e-12
1e-12
1e-12
1e-12
1e-12
1e-12
1e-12
1e-12
1e-12
1e-12
1e-12
1e-12
SCALARS pressure float
LOOKUP_TABLE default
9500000.0
9500000.0
9500000.0
9500000.0
9500000.0
9500000.0
9500000.0
9500000.0
9500000.0
9500000.0
9500000.0
9500000.0
9500000.0
9500000.0
9500000.0
9500000.0
9500000.0
9500000.0
9500000.0
9500000.0
9500000.0
9500000.0
9500000.0
9500000.0
9500000.0
9500000.0
9500000.0
9500000.0
9500000.0
9500000.0
9500000.0
9500000.0
9500000.0
9500000.0
9500000.0
9500000.0
9500000.0
9500000.0
9500000.0
9500000.0
9500000.0
9500000.0
9500000.0
9500000.0
9500000.0
9500000.0
9500000.0
9500000.0
9500000.0
9500000.0
9500000.0
9500000.0
9500000.0
9500000.0
9500000.0
9500000.0
9500000.0
9500000.0
9500000.0
9500000.0
9500000.0
9500000.0
9500000.0
9500000.0
9500000.0
9500000.0
9500000.0
9500000.0
9500000.0
9500000.0
9500000.0
9500000.0
9500000.0
9500000.0
9500000.0
9500000.0
9500000.0
9500000.0
9500000.0
9500000.0
9500000.0
9500000.0
9500000.0
9500000.0
9500000.0
9500000.0
9500000.0
9500000.0
9500000.0
9500000.0
9500000.0
9500000.0
9500000.0
9500000.0
9500000.0
9500000.0
9500000.0
9500000.0
9500000.0
9500000.0
9500000.0
9500000.0
9500000.0
9500000.0
9500000.0
9500000.0
9500000.0
9500000.0
9500000.0
9500000.0
9500000.0
9500000.0
9500000.0
9500000.0
9500000.0
9500000.0
9500000.0
9500000.0
9500000.0
9500000.0
9500000.0
9500000.0
9500000.0
9500000.0
9500000.0
9500000.0
9500000.0
9500000.0
9500000.0
9500000.0
9500000.0
9500000.0
9500000.0
9500000.0
9500000.0
9500000.0
9500000.0
9500000.0
9500000.0
9500000.0
9500000.0
9500000.0
9500000.0
9500000.0
9500000.0
9500000.0
9500000.0
9500000.0
9500000.0
9500000.0
9500000.0
9500000.0
9500000.0
9500000.0
9500000.0
9500000.0
9500000.0
9500000.0
9500000.0
9500000.0
9500000.0
9500000.0
9500000.0
9500000.0
9500000.0
9500000.0
9500000.0
9500000.0
9500000.0
9500000.0
9500000.0
9500000.0
9500000.0
9500000.0
9500000.0
9500000.0
9500000.0
9500000.0
9500000.0
9500000.0
9500000.0
9500000.0
9500000.0
9500000.0
9500000.0
9500000.0
9500000.0
9500000.0
9500000.0
9500000.0
9500000.0
9500000.0
9500000.0
9500000.0
9500000.0
9500000.0
9500000.0
9500000.0
9500000.0
9500000.0
9500000.0
9500000.0
9500000.0
9500000.0
9500000.0
9500000.0
9500000.0
9500000.0
9500000.0
9500000.0
9500000.0
9500000.0
9500000.0
9500000.0
9500000.0
9500000.0
9500000.0
9500000.0
9500000.0
9500000.0
9500000.0
9500000.0
9500000.0
9500000.0
9500000.0
9500000.0
9500000.0
9500000.0
9500000.0
9500000.0
9500000.0
9500000.0
9500000.0
9500000.0
9500000.0
9500000.0
9500000.0
9500000.0
9500000.0
9500000.0
9500000.0
9500000.0
9500000.0
9500000.0
9500000.0
9500000.0
9500000.0
9500000.0
9500000.0
9500000.0
9500000.0
9500000.0
9500000.0
9500000.0
9500000.0
9500000.0
9500000.0
9500000.0
9500000.0
9500000.0
9500000.0
9500000.0
9500000.0
9500000.0
9500000.0
9500000.0
9500000.0
9500000.0
9500000.0
9500000.0
9500000.0
9500000.0
9500000.0
9500000.0
9500000.0
9500000.0
9500000.0
9500000.0
9500000.0
9500000.0
9500000.0
9500000.0
9500000.0
9500000.0
9500000.0
9500000.0
9500000.0
9500000.0
9500000.0
9500000.0
9500000.0
9500000.0
9500000.0
9500000.0
9500000.0
9500000.0
9500000.0
9500000.0
9500000.0
9500000.0
9500000.0
9500000.0
9500000.0
9500000.0
9500000.0
9500000.0
9500000.0
9500000.0
9500000.0
9500000.0
9500000.0
9500000.0
9500000.0
9500000.0
9500000.0
9500000.0
9500000.0
9500000.0
9500000.0
9500000.0
9500000.0
9500000.0
9500000.0
9500000.0
9500000.0
9500000.0
9500000.0
9500000.0
9500000.0
9500000.0
9500000.0
9500000.0
9500000.0
9500000.0
9500000.0
9500000.0
9500000.0
9500000.0
9500000.0
9500000.0
9500000.0
9500000.0
9500000.0
9500000.0
9500000.0
9500000.0
9500000.0
9500000.0
9500000.0
9500000.0
9500000.0
9500000.0
9500000.0
9500000.0
9500000.0
9500000.0
9500000.0
9500000.0
9500000.0
9500000.0
9500000.0
9500000.0
9500000.0
9500000.0
9500000.0
9500000.0
9500000.0
9500000.0
9500000.0
9500000.0
9500000.0
9500000.0
9500000.0
9500000.0
9500000.0
9500000.0
9500000.0
9500000.0
9500000.0
9500000.0
9500000.0
9500000.0
9500000.0
9500000.0
9500000.0
9500000.0
9500000.0
9500000.0
9500000.0
9500000.0
9500000.0
9500000.0
9500000.0
9500000.0
9500000.0
9500000.0
9500000.0
9500000.0
9500000.0
9500000.0
9500000.0
9500000.0
9500000.0
9500000.0
9500000.0
9500000.0
9500000.0
9500000.0
9500000.0
9500000.0
9500000.0
9500000.0
9500000.0
9500000.0
9500000.0
9500000.0
9500000.0
9500000.0
9500000.0
9500000.0
9500000.0
9500000.0
9500000.0
9500000.0
9500000.0
9500000.0
9500000.0
9500000.0
9500000.0
9500000.0
9500000.0
9500000.0
9500000.0
9500000.0
9500000.0
9500000.0
9500000.0
9500000.0
9500000.0
9500000.0
9500000.0
9500000.0
9500000.0
9500000.0
9500000.0
9500000.0
9500000.0
9500000.0
9500000.0
9500000.0
9500000.0
9500000.0
9500000.0
9500000.0
9500000.0
9500000.0
9500000.0
9500000.0
9500000.0
9500000.0
9500000.0
9500000.0
9500000.0
9500000.0
9500000.0
9500000.0
9500000.0
9500000.0
9500000.0
9500000.0
9500000.0
9500000.0
9500000.0
9500000.0
9500000.0
9500000.0
9500000.0
9500000.0
9500000.0
9500000.0
9500000.0
9500000.0
9500000.0
9500000.0
9500000.0
9500000.0
9500000.0
9500000.0
9500000.0
9500000.0
9500000.0
9500000.0
9500000.0
9500000.0
9500000.0
9500000.0
9500000.0
9500000.0
9500000.0
9500000.0
9500000.0
9500000.0
9500000.0
9500000.0
9500000.0
9500000.0
9500000.0
9500000.0
9500000.0
9500000.0
9500000.0
9500000.0
9500000.0
9500000.0
9500000.0
9500000.0
9500000.0
9500000.0
9500000.0
9500000.0
9500000.0
9500000.0
9500000.0
9500000.0
9500000.0
9500000.0
9500000.0
9500000.0
9500000.0
9500000.0
9500000.0
9500000.0
9500000.0
9500000.0
9500000.0
9500000.0
9500000.0
9500000.0
9500000.0
9500000.0
9500000.0
9500000.0
9500000.0
9500000.0
9500000.0
9500000.0
9500000.0
9500000.0
9500000.0
9500000.0
9500000.0
9500000.0
9500000.0
9500000.0
9500000.0
9500000.0
9500000.0
9500000.0
9500000.0
9500000.0
9500000.0
9500000.0
9500000.0
9500000.0
9500000.0
9500000.0
9500000.0
9500000.0
9500000.0
9500000.0
9500000.0
9500000.0
9500000.0
9500000.0
9500000.0
9500000.0
9500000.0
9500000.0
9500000.0
9500000.0
9500000.0
9500000.0
9500000.0
9500000.0
9500000.0
9500000.0
9500000.0
9500000.0
9500000.0
9500000.0
9500000.0
9500000.0
9500000.0
9500000.0
9500000.0
9500000.0
9500000.0
9500000.0
9500000.0
9500000.0
9500000.0
9500000.0
9500000.0
9500000.0
9500000.0
9500000.0
9500000.0
9500000.0
9500000.0
9500000.0
9500000.0
9500000.0
9500000.0
9500000.0
9500000.0
9500000.0
9500000.0
9500000.0
9500000.0
9500000.0
9500000.0
9500000.0
9500000.0
9500000.0
9500000.0
9500000.0
9500000.0
9500000.0
9500000.0
9500000.0
9500000.0
9500000.0
9500000.0
9500000.0
9500000.0
9500000.0
9500000.0
9500000.0
9500000.0
9500000.0
9500000.0
9500000.0
9500000.0
9500000.0
9500000.0
9500000.0
9500000.0
9500000.0
9500000.0
9500000.0
9500000.0
9500000.0
9500000.0
9500000.0
9500000.0
9500000.0
9500000.0
9500000.0
9500000.0
9500000.0
9500000.0
9500000.0
9500000.0
9500000.0
9500000.0
9500000.0
9500000.0
9500000.0
9500000.0
9500000.0
9500000.0
9500000.0
9500000.0
9500000.0
9500000.0
9500000.0
9500000.0
9500000.0
9500000.0
9500000.0
9500000.0
9500000.0
9500000.0
9500000.0
9500000.0
9500000.0
9500000.0
9500000.0
9500000.0
9500000.0
9500000.0
9500000.0
9500000.0
9500000.0
9500000.0
9500000.0
9500000.0
9500000.0
9500000.0
9500000.0
9500000.0
9500000.0
9500000.0
9500000.0
9500000.0
9500000.0
9500000.0
9500000.0
9500000.0
9500000.0
9500000.0
9500000.0
9500000.0
9500000.0
9500000.0
9500000.0
9500000.0
9500000.0
9500000.0
9500000.0
9500000.0
9500000.0
9500000.0
9500000.0
9500000.0
9500000.0
9500000.0
9500000.0
9500000.0
9500000.0
9500000.0
9500000.0
9500000.0
9500000.0
9500000.0
9500000.0
9500000.0
9500000.0
9500000.0
9500000.0
9500000.0
9500000.0
9500000.0
9500000.0
9500000.0
9500000.0
9500000.0
9500000.0
9500000.0
9500000.0
9500000.0
9500000.0
9500000.0
9500000.0
9500000.0
9500000.0
9500000.0
9500000.0
9500000.0
9500000.0
9500000.0
9500000.0
9500000.0
9500000.0
9500000.0
9500000.0
9500000.0
9500000.0
9500000.0
9500000.0
9500000.0
9500000.0
9500000.0
9500000.0
9500000.0
9500000.0
9500000.0
9500000.0
9500000.0
9500000.0
9500000.0
9500000.0
9500000.0
9500000.0
9500000.0
9500000.0
9500000.0
9500000.0
9500000.0
9500000.0
9500000.0
9500000.0
9500000.0
9500000.0
9500000.0
9500000.0
9500000.0
9500000.0
9500000.0
9500000.0
9500000.0
9500000.0
9500000.0
9500000.0
9500000.0
9500000.0
9500000.0
9500000.0
9500000.0
9500000.0
9500000.0
9500000.0
9500000.0
9500000.0
9500000.0
9500000.0
9500000.0
9500000.0
9500000.0
9500000.0
9500000.0
9500000.0
9500000.0
9500000.0
9500000.0
9500000.0
9500000.0
9500000.0
9500000.0
9500000.0
9500000.0
9500000.0
9500000.0
9500000.0
9500000.0
9500000.0
9500000.0
9500000.0
9500000.0
9500000.0
9500000.0
9500000.0
9500000.0
9500000.0
9500000.0
9500000.0
9500000.0
9500000.0
9500000.0
9500000.0
9500000.0
9500000.0
9500000.0
9500000.0
9500000.0
9500000.0
9500000.0
9500000.0
9500000.0
9500000.0
9500000.0
9500000.0
9500000.0
9500000.0
9500000.0
9500000.0
9500000.0
9500000.0
9500000.0
9500000.0
9500000.0
9500000.0
9500000.0
9500000.0
9500000.0
9500000.0
9500000.0
9500000.0
9500000.0
9500000.0
9500000.0
9500000.0
9500000.0
9500000.0
9500000.0
9500000.0
9500000.0
9500000.0
9500000.0
9500000.0
9500000.0
9500000.0
9500000.0
9500000.0
9500000.0
9500000.0
9500000.0
9500000.0
9500000.0
9500000.0
9500000.0
9500000.0
9500000.0
9500000.0
9500000.0
9500000.0
9500000.0
9500000.0
9500000.0
9500000.0
9500000.0
9500000.0
9500000.0
9500000.0
9500000.0
9500000.0
9500000.0
9500000.0
9500000.0
9500000.0
9500000.0
9500000.0
9500000.0
9500000.0
9500000.0
9500000.0
9500000.0
9500000.0
9500000.0
9500000.0
9500000.0
9500000.0
9500000.0
9500000.0
9500000.0
9500000.0
9500000.0
9500000.0
9500000.0
9500000.0
9500000.0
9500000.0
9500000.0
9500000.0
9500000.0
9500000.0
9500000.0
9500000.0
9500000.0
9500000.0
9500000.0
9500000.0
9500000.0
9500000.0
9500000.0
9500000.0
9500000.0
9500000.0
9500000.0
9500000.0
9500000.0
9500000.0
9500000.0
9500000.0
9500000.0
9500000.0
9500000.0
9500000.0
9500000.0
9500000.0
9500000.0
9500000.0
9500000.0
9500000.0
9500000.0
9500000.0
9500000.0
9500000.0
9500000.0
9500000.0
9500000.0
9500000.0
9500000.0
9500000.0
9500000.0
9500000.0
9500000.0
9500000.0
9500000.0
9500000.0
9500000.0
9500000.0
9500000.0
9500000.0
9500000.0
9500000.0
9500000.0
9500000.0
9500000.0
9500000.0
SCALARS water_saturation float
LOOKUP_TABLE default
0.09999999999999998
0.09999999999999998
0.09999999999999998
0.09999999999999998
0.09999999999999998
0.09999999999999998
0.09999999999999998
0.09999999999999998
0.09999999999999998
0.09999999999999998
0.09999999999999998
0.09999999999999998
0.09999999999999998
0.09999999999999998
0.09999999999999998
0.09999999999999998
0.09999999999999998
0.09999999999999998
0.09999999999999998
0.09999999999999998
0.09999999999999998
0.09999999999999998
0.09999999999999998
0.09999999999999998
0.09999999999999998
0.09999999999999998
0.09999999999999998
0.09999999999999998
0.09999999999999998
0.09999999999999998
0.09999999999999998
0.09999999999999998
0.09999999999999998
0.09999999999999998
0.09999999999999998
0.09999999999999998
0.09999999999999998
0.09999999999999998
0.09999999999999998
0.09999999999999998
0.09999999999999998
0.09999999999999998
0.09999999999999998
0.09999999999999998
0.09999999999999998
0.09999999999999998
0.09999999999999998
0.09999999999999998
0.09999999999999998
0.09999999999999998
0.09999999999999998
0.09999999999999998
0.09999999999999998
0.09999999999999998
0.09999999999999998
0.09999999999999998
0.09999999999999998
0.09999999999999998
0.09999999999999998
0.09999999999999998
0.09999999999999998
0.09999999999999998
0.09999999999999998
0.09999999999999998
0.09999999999999998
0.09999999999999998
0.09999999999999998
0.09999999999999998
0.09999999999999998
0.09999999999999998
0.09999999999999998
0.09999999999999998
0.09999999999999998
0.09999999999999998
0.09999999999999998
0.09999999999999998
0.09999999999999998
0.09999999999999998
0.09999999999999998
0.09999999999999998
0.09999999999999998
0.09999999999999998
0.09999999999999998
0.09999999999999998
0.09999999999999998
0.09999999999999998
0.09999999999999998
0.09999999999999998
0.09999999999999998
0.09999999999999998
0.09999999999999998
0.09999999999999998
0.09999999999999998
0.09999999999999998
0.09999999999999998
0.09999999999999998
0.09999999999999998
0.09999999999999998
0.09999999999999998
0.09999999999999998
0.09999999999999998
0.09999999999999998
0.09999999999999998
0.09999999999999998
0.09999999999999998
0.09999999999999998
0.09999999999999998
0.09999999999999998
0.09999999999999998
0.09999999999999998
0.09999999999999998
0.09999999999999998
0.09999999999999998
0.09999999999999998
0.09999999999999998
0.09999999999999998
0.09999999999999998
0.09999999999999998
0.09999999999999998
0.09999999999999998
0.09999999999999998
0.09999999999999998
0.09999999999999998
0.09999999999999998
0.09999999999999998
0.09999999999999998
0.09999999999999998
0.09999999999999998
0.09999999999999998
0.09999999999999998
0.09999999999999998
0.09999999999999998
0.09999999999999998
0.09999999999999998
0.09999999999999998
0.09999999999999998
0.09999999999999998
0.09999999999999998
0.09999999999999998
0.09999999999999998
0.09999999999999998
0.09999999999999998
0.09999999999999998
0.09999999999999998
0.09999999999999998
0.09999999999999998
0.09999999999999998
0.09999999999999998
0.09999999999999998
0.09999999999999998
0.09999999999999998
0.09999999999999998
0.09999999999999998
0.09999999999999998
0.09999999999999998
0.09999999999999998
0.09999999999999998
0.09999999999999998
0.09999999999999998
0.09999999999999998
0.09999999999999998
0.09999999999999998
0.09999999999999998
0.09999999999999998
0.09999999999999998
0.09999999999999998
0.09999999999999998
0.09999999999999998
0.09999999999999998
0.09999999999999998
0.09999999999999998
0.09999999999999998
0.09999999999999998
0.09999999999999998
0.09999999999999998
0.09999999999999998
0.09999999999999998
0.09999999999999998
0.09999999999999998
0.09999999999999998
0.09999999999999998
0.09999999999999998
0.09999999999999998
0.09999999999999998
0.09999999999999998
0.09999999999999998
0.09999999999999998
0.09999999999999998
0.09999999999999998
0.09999999999999998
0.09999999999999998
0.09999999999999998