# vtk DataFile Version 3.98
Exemple RECTILINEAR_GRID
ASCII
DATASET UNSTRUCTURED_GRID
POINTS 1111 float 
0.0 0.0 0.0
10.0 0.0 0.0
20.0 0.0 0.0
30.0 0.0 0.0
40.0 0.0 0.0
50.0 0.0 0.0
60.0 0.0 0.0
70.0 0.0 0.0
80.0 0.0 0.0
90.0 0.0 0.0
100.0 0.0 0.0
110.0 0.0 0.0
120.0 0.0 0.0
130.0 0.0 0.0
140.0 0.0 0.0
150.0 0.0 0.0
160.0 0.0 0.0
170.0 0.0 0.0
180.0 0.0 0.0
190.0 0.0 0.0
200.0 0.0 0.0
210.0 0.0 0.0
220.0 0.0 0.0
230.0 0.0 0.0
240.0 0.0 0.0
250.0 0.0 0.0
260.0 0.0 0.0
270.0 0.0 0.0
280.0 0.0 0.0
290.0 0.0 0.0
300.0 0.0 0.0
310.0 0.0 0.0
320.0 0.0 0.0
330.0 0.0 0.0
340.0 0.0 0.0
350.0 0.0 0.0
360.0 0.0 0.0
370.0 0.0 0.0
380.0 0.0 0.0
390.0 0.0 0.0
400.0 0.0 0.0
410.0 0.0 0.0
420.0 0.0 0.0
430.0 0.0 0.0
440.0 0.0 0.0
450.0 0.0 0.0
460.0 0.0 0.0
470.0 0.0 0.0
480.0 0.0 0.0
490.0 0.0 0.0
500.0 0.0 0.0
510.0 0.0 0.0
520.0 0.0 0.0
530.0 0.0 0.0
540.0 0.0 0.0
550.0 0.0 0.0
560.0 0.0 0.0
570.0 0.0 0.0
580.0 0.0 0.0
590.0 0.0 0.0
600.0 0.0 0.0
610.0 0.0 0.0
620.0 0.0 0.0
630.0 0.0 0.0
640.0 0.0 0.0
650.0 0.0 0.0
660.0 0.0 0.0
670.0 0.0 0.0
680.0 0.0 0.0
690.0 0.0 0.0
700.0 0.0 0.0
710.0 0.0 0.0
720.0 0.0 0.0
730.0 0.0 0.0
740.0 0.0 0.0
750.0 0.0 0.0
760.0 0.0 0.0
770.0 0.0 0.0
780.0 0.0 0.0
790.0 0.0 0.0
800.0 0.0 0.0
810.0 0.0 0.0
820.0 0.0 0.0
830.0 0.0 0.0
840.0 0.0 0.0
850.0 0.0 0.0
860.0 0.0 0.0
870.0 0.0 0.0
880.0 0.0 0.0
890.0 0.0 0.0
900.0 0.0 0.0
910.0 0.0 0.0
920.0 0.0 0.0
930.0 0.0 0.0
940.0 0.0 0.0
950.0 0.0 0.0
960.0 0.0 0.0
970.0 0.0 0.0
980.0 0.0 0.0
990.0 0.0 0.0
1000.0 0.0 0.0
0.0 50.0 0.0
10.0 50.0 0.0
20.0 50.0 0.0
30.0 50.0 0.0
40.0 50.0 0.0
50.0 50.0 0.0
60.0 50.0 0.0
70.0 50.0 0.0
80.0 50.0 0.0
90.0 50.0 0.0
100.0 50.0 0.0
110.0 50.0 0.0
120.0 50.0 0.0
130.0 50.0 0.0
140.0 50.0 0.0
150.0 50.0 0.0
160.0 50.0 0.0
170.0 50.0 0.0
180.0 50.0 0.0
190.0 50.0 0.0
200.0 50.0 0.0
210.0 50.0 0.0
220.0 50.0 0.0
230.0 50.0 0.0
240.0 50.0 0.0
250.0 50.0 0.0
260.0 50.0 0.0
270.0 50.0 0.0
280.0 50.0 0.0
290.0 50.0 0.0
300.0 50.0 0.0
310.0 50.0 0.0
320.0 50.0 0.0
330.0 50.0 0.0
340.0 50.0 0.0
350.0 50.0 0.0
360.0 50.0 0.0
370.0 50.0 0.0
380.0 50.0 0.0
390.0 50.0 0.0
400.0 50.0 0.0
410.0 50.0 0.0
420.0 50.0 0.0
430.0 50.0 0.0
440.0 50.0 0.0
450.0 50.0 0.0
460.0 50.0 0.0
470.0 50.0 0.0
480.0 50.0 0.0
490.0 50.0 0.0
500.0 50.0 0.0
510.0 50.0 0.0
520.0 50.0 0.0
530.0 50.0 0.0
540.0 50.0 0.0
550.0 50.0 0.0
560.0 50.0 0.0
570.0 50.0 0.0
580.0 50.0 0.0
590.0 50.0 0.0
600.0 50.0 0.0
610.0 50.0 0.0
620.0 50.0 0.0
630.0 50.0 0.0
640.0 50.0 0.0
650.0 50.0 0.0
660.0 50.0 0.0
670.0 50.0 0.0
680.0 50.0 0.0
690.0 50.0 0.0
700.0 50.0 0.0
710.0 50.0 0.0
720.0 50.0 0.0
730.0 50.0 0.0
740.0 50.0 0.0
750.0 50.0 0.0
760.0 50.0 0.0
770.0 50.0 0.0
780.0 50.0 0.0
790.0 50.0 0.0
800.0 50.0 0.0
810.0 50.0 0.0
820.0 50.0 0.0
830.0 50.0 0.0
840.0 50.0 0.0
850.0 50.0 0.0
860.0 50.0 0.0
870.0 50.0 0.0
880.0 50.0 0.0
890.0 50.0 0.0
900.0 50.0 0.0
910.0 50.0 0.0
920.0 50.0 0.0
930.0 50.0 0.0
940.0 50.0 0.0
950.0 50.0 0.0
960.0 50.0 0.0
970.0 50.0 0.0
980.0 50.0 0.0
990.0 50.0 0.0
1000.0 50.0 0.0
0.0 100.0 0.0
10.0 100.0 0.0
20.0 100.0 0.0
30.0 100.0 0.0
40.0 100.0 0.0
50.0 100.0 0.0
60.0 100.0 0.0
70.0 100.0 0.0
80.0 100.0 0.0
90.0 100.0 0.0
100.0 100.0 0.0
110.0 100.0 0.0
120.0 100.0 0.0
130.0 100.0 0.0
140.0 100.0 0.0
150.0 100.0 0.0
160.0 100.0 0.0
170.0 100.0 0.0
180.0 100.0 0.0
190.0 100.0 0.0
200.0 100.0 0.0
210.0 100.0 0.0
220.0 100.0 0.0
230.0 100.0 0.0
240.0 100.0 0.0
250.0 100.0 0.0
260.0 100.0 0.0
270.0 100.0 0.0
280.0 100.0 0.0
290.0 100.0 0.0
300.0 100.0 0.0
310.0 100.0 0.0
320.0 100.0 0.0
330.0 100.0 0.0
340.0 100.0 0.0
350.0 100.0 0.0
360.0 100.0 0.0
370.0 100.0 0.0
380.0 100.0 0.0
390.0 100.0 0.0
400.0 100.0 0.0
410.0 100.0 0.0
420.0 100.0 0.0
430.0 100.0 0.0
440.0 100.0 0.0
450.0 100.0 0.0
460.0 100.0 0.0
470.0 100.0 0.0
480.0 100.0 0.0
490.0 100.0 0.0
500.0 100.0 0.0
510.0 100.0 0.0
520.0 100.0 0.0
530.0 100.0 0.0
540.0 100.0 0.0
550.0 100.0 0.0
560.0 100.0 0.0
570.0 100.0 0.0
580.0 100.0 0.0
590.0 100.0 0.0
600.0 100.0 0.0
610.0 100.0 0.0
620.0 100.0 0.0
630.0 100.0 0.0
640.0 100.0 0.0
650.0 100.0 0.0
660.0 100.0 0.0
670.0 100.0 0.0
680.0 100.0 0.0
690.0 100.0 0.0
700.0 100.0 0.0
710.0 100.0 0.0
720.0 100.0 0.0
730.0 100.0 0.0
740.0 100.0 0.0
750.0 100.0 0.0
760.0 100.0 0.0
770.0 100.0 0.0
780.0 100.0 0.0
790.0 100.0 0.0
800.0 100.0 0.0
810.0 100.0 0.0
820.0 100.0 0.0
830.0 100.0 0.0
840.0 100.0 0.0
850.0 100.0 0.0
860.0 100.0 0.0
870.0 100.0 0.0
880.0 100.0 0.0
890.0 100.0 0.0
900.0 100.0 0.0
910.0 100.0 0.0
920.0 100.0 0.0
930.0 100.0 0.0
940.0 100.0 0.0
950.0 100.0 0.0
960.0 100.0 0.0
970.0 100.0 0.0
980.0 100.0 0.0
990.0 100.0 0.0
1000.0 100.0 0.0
0.0 150.0 0.0
10.0 150.0 0.0
20.0 150.0 0.0
30.0 150.0 0.0
40.0 150.0 0.0
50.0 150.0 0.0
60.0 150.0 0.0
70.0 150.0 0.0
80.0 150.0 0.0
90.0 150.0 0.0
100.0 150.0 0.0
110.0 150.0 0.0
120.0 150.0 0.0
130.0 150.0 0.0
140.0 150.0 0.0
150.0 150.0 0.0
160.0 150.0 0.0
170.0 150.0 0.0
180.0 150.0 0.0
190.0 150.0 0.0
200.0 150.0 0.0
210.0 150.0 0.0
220.0 150.0 0.0
230.0 150.0 0.0
240.0 150.0 0.0
250.0 150.0 0.0
260.0 150.0 0.0
270.0 150.0 0.0
280.0 150.0 0.0
290.0 150.0 0.0
300.0 150.0 0.0
310.0 150.0 0.0
320.0 150.0 0.0
330.0 150.0 0.0
340.0 150.0 0.0
350.0 150.0 0.0
360.0 150.0 0.0
370.0 150.0 0.0
380.0 150.0 0.0
390.0 150.0 0.0
400.0 150.0 0.0
410.0 150.0 0.0
420.0 150.0 0.0
430.0 150.0 0.0
440.0 150.0 0.0
450.0 150.0 0.0
460.0 150.0 0.0
470.0 150.0 0.0
480.0 150.0 0.0
490.0 150.0 0.0
500.0 150.0 0.0
510.0 150.0 0.0
520.0 150.0 0.0
530.0 150.0 0.0
540.0 150.0 0.0
550.0 150.0 0.0
560.0 150.0 0.0
570.0 150.0 0.0
580.0 150.0 0.0
590.0 150.0 0.0
600.0 150.0 0.0
610.0 150.0 0.0
620.0 150.0 0.0
630.0 150.0 0.0
640.0 150.0 0.0
650.0 150.0 0.0
660.0 150.0 0.0
670.0 150.0 0.0
680.0 150.0 0.0
690.0 150.0 0.0
700.0 150.0 0.0
710.0 150.0 0.0
720.0 150.0 0.0
730.0 150.0 0.0
740.0 150.0 0.0
750.0 150.0 0.0
760.0 150.0 0.0
770.0 150.0 0.0
780.0 150.0 0.0
790.0 150.0 0.0
800.0 150.0 0.0
810.0 150.0 0.0
820.0 150.0 0.0
830.0 150.0 0.0
840.0 150.0 0.0
850.0 150.0 0.0
860.0 150.0 0.0
870.0 150.0 0.0
880.0 150.0 0.0
890.0 150.0 0.0
900.0 150.0 0.0
910.0 150.0 0.0
920.0 150.0 0.0
930.0 150.0 0.0
940.0 150.0 0.0
950.0 150.0 0.0
960.0 150.0 0.0
970.0 150.0 0.0
980.0 150.0 0.0
990.0 150.0 0.0
1000.0 150.0 0.0
0.0 200.0 0.0
10.0 200.0 0.0
20.0 200.0 0.0
30.0 200.0 0.0
40.0 200.0 0.0
50.0 200.0 0.0
60.0 200.0 0.0
70.0 200.0 0.0
80.0 200.0 0.0
90.0 200.0 0.0
100.0 200.0 0.0
110.0 200.0 0.0
120.0 200.0 0.0
130.0 200.0 0.0
140.0 200.0 0.0
150.0 200.0 0.0
160.0 200.0 0.0
170.0 200.0 0.0
180.0 200.0 0.0
190.0 200.0 0.0
200.0 200.0 0.0
210.0 200.0 0.0
220.0 200.0 0.0
230.0 200.0 0.0
240.0 200.0 0.0
250.0 200.0 0.0
260.0 200.0 0.0
270.0 200.0 0.0
280.0 200.0 0.0
290.0 200.0 0.0
300.0 200.0 0.0
310.0 200.0 0.0
320.0 200.0 0.0
330.0 200.0 0.0
340.0 200.0 0.0
350.0 200.0 0.0
360.0 200.0 0.0
370.0 200.0 0.0
380.0 200.0 0.0
390.0 200.0 0.0
400.0 200.0 0.0
410.0 200.0 0.0
420.0 200.0 0.0
430.0 200.0 0.0
440.0 200.0 0.0
450.0 200.0 0.0
460.0 200.0 0.0
470.0 200.0 0.0
480.0 200.0 0.0
490.0 200.0 0.0
500.0 200.0 0.0
510.0 200.0 0.0
520.0 200.0 0.0
530.0 200.0 0.0
540.0 200.0 0.0
550.0 200.0 0.0
560.0 200.0 0.0
570.0 200.0 0.0
580.0 200.0 0.0
590.0 200.0 0.0
600.0 200.0 0.0
610.0 200.0 0.0
620.0 200.0 0.0
630.0 200.0 0.0
640.0 200.0 0.0
650.0 200.0 0.0
660.0 200.0 0.0
670.0 200.0 0.0
680.0 200.0 0.0
690.0 200.0 0.0
700.0 200.0 0.0
710.0 200.0 0.0
720.0 200.0 0.0
730.0 200.0 0.0
740.0 200.0 0.0
750.0 200.0 0.0
760.0 200.0 0.0
770.0 200.0 0.0
780.0 200.0 0.0
790.0 200.0 0.0
800.0 200.0 0.0
810.0 200.0 0.0
820.0 200.0 0.0
830.0 200.0 0.0
840.0 200.0 0.0
850.0 200.0 0.0
860.0 200.0 0.0
870.0 200.0 0.0
880.0 200.0 0.0
890.0 200.0 0.0
900.0 200.0 0.0
910.0 200.0 0.0
920.0 200.0 0.0
930.0 200.0 0.0
940.0 200.0 0.0
950.0 200.0 0.0
960.0 200.0 0.0
970.0 200.0 0.0
980.0 200.0 0.0
990.0 200.0 0.0
1000.0 200.0 0.0
0.0 250.0 0.0
10.0 250.0 0.0
20.0 250.0 0.0
30.0 250.0 0.0
40.0 250.0 0.0
50.0 250.0 0.0
60.0 250.0 0.0
70.0 250.0 0.0
80.0 250.0 0.0
90.0 250.0 0.0
100.0 250.0 0.0
110.0 250.0 0.0
120.0 250.0 0.0
130.0 250.0 0.0
140.0 250.0 0.0
150.0 250.0 0.0
160.0 250.0 0.0
170.0 250.0 0.0
180.0 250.0 0.0
190.0 250.0 0.0
200.0 250.0 0.0
210.0 250.0 0.0
220.0 250.0 0.0
230.0 250.0 0.0
240.0 250.0 0.0
250.0 250.0 0.0
260.0 250.0 0.0
270.0 250.0 0.0
280.0 250.0 0.0
290.0 250.0 0.0
300.0 250.0 0.0
310.0 250.0 0.0
320.0 250.0 0.0
330.0 250.0 0.0
340.0 250.0 0.0
350.0 250.0 0.0
360.0 250.0 0.0
370.0 250.0 0.0
380.0 250.0 0.0
390.0 250.0 0.0
400.0 250.0 0.0
410.0 250.0 0.0
420.0 250.0 0.0
430.0 250.0 0.0
440.0 250.0 0.0
450.0 250.0 0.0
460.0 250.0 0.0
470.0 250.0 0.0
480.0 250.0 0.0
490.0 250.0 0.0
500.0 250.0 0.0
510.0 250.0 0.0
520.0 250.0 0.0
530.0 250.0 0.0
540.0 250.0 0.0
550.0 250.0 0.0
560.0 250.0 0.0
570.0 250.0 0.0
580.0 250.0 0.0
590.0 250.0 0.0
600.0 250.0 0.0
610.0 250.0 0.0
620.0 250.0 0.0
630.0 250.0 0.0
640.0 250.0 0.0
650.0 250.0 0.0
660.0 250.0 0.0
670.0 250.0 0.0
680.0 250.0 0.0
690.0 250.0 0.0
700.0 250.0 0.0
710.0 250.0 0.0
720.0 250.0 0.0
730.0 250.0 0.0
740.0 250.0 0.0
750.0 250.0 0.0
760.0 250.0 0.0
770.0 250.0 0.0
780.0 250.0 0.0
790.0 250.0 0.0
800.0 250.0 0.0
810.0 250.0 0.0
820.0 250.0 0.0
830.0 250.0 0.0
840.0 250.0 0.0
850.0 250.0 0.0
860.0 250.0 0.0
870.0 250.0 0.0
880.0 250.0 0.0
890.0 250.0 0.0
900.0 250.0 0.0
910.0 250.0 0.0
920.0 250.0 0.0
930.0 250.0 0.0
940.0 250.0 0.0
950.0 250.0 0.0
960.0 250.0 0.0
970.0 250.0 0.0
980.0 250.0 0.0
990.0 250.0 0.0
1000.0 250.0 0.0
0.0 300.0 0.0
10.0 300.0 0.0
20.0 300.0 0.0
30.0 300.0 0.0
40.0 300.0 0.0
50.0 300.0 0.0
60.0 300.0 0.0
70.0 300.0 0.0
80.0 300.0 0.0
90.0 300.0 0.0
100.0 300.0 0.0
110.0 300.0 0.0
120.0 300.0 0.0
130.0 300.0 0.0
140.0 300.0 0.0
150.0 300.0 0.0
160.0 300.0 0.0
170.0 300.0 0.0
180.0 300.0 0.0
190.0 300.0 0.0
200.0 300.0 0.0
210.0 300.0 0.0
220.0 300.0 0.0
230.0 300.0 0.0
240.0 300.0 0.0
250.0 300.0 0.0
260.0 300.0 0.0
270.0 300.0 0.0
280.0 300.0 0.0
290.0 300.0 0.0
300.0 300.0 0.0
310.0 300.0 0.0
320.0 300.0 0.0
330.0 300.0 0.0
340.0 300.0 0.0
[...]
CELL_DATA 1000
SCALARS permeability float
LOOKUP_TABLE default
1e-12
1e-12
1e-12
1e-12
1e-12
1e-12
1e-12
1e-12
1e-12
1e-12
1e-12
1e-12
1e-12
1e-12
1e-12
1e-12
1e-12
1e-12
1e-12
1e-12
1e-12
1e-12
1e-12
1e-12
1e-12
1e-12
1e-12
1e-12
1e-12
1e-12
1e-12
1e-12
1e-12
1e-12
1e-12
1e-12
1e-12
1e-12
1e-12
1e-12
1e-12
1e-12
1e-12
1e-12
1e-12
1e-12
1e-12
1e-12
1e-12
1e-12
1e-12
1e-12
1e-12
1e-12
1e-12
1e-12
1e-12
1e-12
1e-12
1e-12
1e-12
1e-12
1e-12
1e-12
1e-12
1e-12
1e-12
1e-12
1e-12
1e-12
1e-12
1e-12
1e-12
1e-12
1e-12
1e-12
1e-12
1e-12
1e-12
1e-12
1e-12
1e-12
1e-12
1e-12
1e-12
1e-12
1e-12
1e-12
1e-12
1e-12
1e-12
1e-12
1e-12
1e-12
1e-12
1e-12
1e-12
1e-12
1e-12
1e-12
1e-12
1e-12
1e-12
1e-12
1e-12
1e-12
1e-12
1e-12
1e-12
1e-12
1e-12
1e-12
1e-12
1e-12
1e-12
1e-12
1e-12
1e-12
1e-12
1e-12
1e-12
1e-12
1e-12
1e-12
1e-12
1e-12
1e-12
1e-12
1e-12
1e-12
1e-12
1e-12
1e-12
1e-12
1e-12
1e-12
1e-12
1e-12
1e-12
1e-12
1e-12
1e-12
1e-12
1e-12
1e-12
1e-12
1e-12
1e-12
1e-12
1e-12
1e-12
1e-12
1e-12
1e-12
1e-12
1e-12
1e-12
1e-12
1e-12
1e-12
1e-12
1e-12
1e-12
1e-12
1e-12
1e-12
1e-12
1e-12
1e-12
1e-12
1e-12
1e-12
1e-12
1e-12
1e-12
1e-12
1e-12
1e-12
1e-12
1e-12
1e-12
1e-12
1e-12
1e-12
1e-12
1e-12
1e-12
1e-12
1e-12
1e-12
1e-12
1e-12
1e-12
1e-12
1e-12
1e-12
1e-12
1e-12
1e-12
1e-12
1e-12
1e-12
1e-12
1e-12
1e-12
1e-12
1e-12
1e-12
1e-12
1e-12
1e-12
1e-12
1e-12
1e-12
1e-12
1e-12
1e-12
1e-12
1e-12
1e-12
1e-12
1e-12
1e-12
1e-12
1e-12
1e-12
1e-12
1e-12
1e-12
1e-12
1e-12
1e-12
1e-12
1e-12
1e-12
1e-12
1e-12
1e-12
1e-12
1e-12
1e-12
1e-12
1e-12
1e-12
1e-12
1e-12
1e-12
1e-12
1e-12
1e-12
1e-12
1e-12
1e-12
1e-12
1e-12
1e-12
1e-12
1e-12
1e-12
1e-12
1e-12
1e-12
1e-12
1e-12
1e-12
1e-12
1e-12
1e-12
1e-12
1e-12
1e-12
1e-12
1e-12
1e-12
1e-12
1e-12
1e-12
1e-12
1e-12
1e-12
1e-12
1e-12
1e-12
1e-12
1e-12
1e-12
1e-12
1e-12
1e-12
1e-12
1e-12
1e-12
1e-12
1e-12
1e-12
1e-12
1e-12
1e-12
1e-12
1e-12
1e-12
1e-12
1e-12
1e-12
1e-12
1e-12
1e-12
1e-12
1e-12
1e-12
1e-12
1e-12
1e-12
1e-12
1e-12
1e-12
1e-12
1e-12
1e-12
1e-12
1e-12
1e-12
1e-12
1e-12
1e-12
1e-12
1e-12
1e-12
1e-12
1e-12
1e-12
1e-12
1e-12
1e-12
1e-12
1e-12
1e-12
1e-12
1e-12
1e-12
1e-12
1e-12
1e-12
1e-12
1e-12
1e-12
1e-12
1e-12
1e-12
1e-12
1e-12
1e-12
1e-12
1e-12
1e-12
1e-12
1e-12
1e-12
1e-12
1e-12
1e-12
1e-12
1e-12
1e-12
1e-12
1e-12
1e-12
1e-12
1e-12
1e-12
1e-12
1e-12
1e-12
1e-12
1e-12
1e-12
1e-12
1e-12
1e-12
1e-12
1e-12
1e-12
1e-12
1e-12
1e-12
1e-12
1e-12
1e-12
1e-12
1e-12
1e-12
1e-12
1e-12
1e-12
1e-12
1e-12
1e-12
1e-12
1e-12
1e-12
1e-12
1e-12
1e-12
1e-12
1e-12
1e-12
1e-12
1e-12
1e-12
1e-12
1e-12
1e-12
1e-12
1e-12
1e-12
1e-12
1e-12
1e-12
1e-12
1e-12
1e-12
1e-12
1e-12
1e-12
1e-12
1e-12
1e-12
1e-12
1e-12
1e-12
1e-12
1e-12
1e-12
1e-12
1e-12
1e-12
1e-12
1e-12
1e-12
1e-12
1e-12
1e-12
1e-12
1e-12
1e-12
1e-12
1e-12
1e-12
1e-12
1e-12
1e-12
1e-12
1e-12
1e-12
1e-12
1e-12
1e-12
1e-12
1e-12
1e-12
1e-12
1e-12
1e-12
1e-12
1e-12
1e-12
1e-12
1e-12
1e-12
1e-12
1e-12
1e-12
1e-12
1e-12
1e-12
1e-12
1e-12
1e-12
1e-12
1e-12
1e-12
1e-12
1e-12
1e-12
1e-12
1e-12
1e-12
1e-12
1e-12
1e-12
1e-12
1e-12
1e-12
1e-12
1e-12
1e-12
1e-12
1e-12
1e-12
1e-12
1e-12
1e-12
1e-12
1e-12
1e-12
1e-12
1e-12
1e-12
1e-12
1e-12
1e-12
1e-12
1e-12
1e-12
1e-12
1e-12
1e-12
1e-12
1e-12
1e-12
1e-12
1e-12
1e-12
1e-12
1e-12
1e-12
1e-12
1e-12
1e-12
1e-12
1e-12
1e-12
1e-12
1e-12
1e-12
1e-12
1e-12
1e-12
1e-12
1e-12
1e-12
1e-12
1e-12
1e-12
1e-12
1e-12
1e-12
1e-12
1e-12
1e-12
1e-12
1e-12
1e-12
1e-12
1e-12
1e-12
1e-12
1e-12
1e-12
1e-12
1e-12
1e-12
1e-12
1e-12
1e-12
1e-12
1e-12
1e-12
1e-12
1e-12
1e-12
1e-12
1e-12
1e-12
1e-12
1e-12
1e-12
1e-12
1e-12
1e-12
1e-12
1e-12
1e-12
1e-12
1e-12
1e-12
1e-12
1e-12
1e-12
1e-12
1e-12
1e-12
1e-12
1e-12
1e-12
1e-12
1e-12
1e-12
1e-12
1e-12
1e-12
1e-12
1e-12
1e-12
1e-12
1e-12
1e-12
1e-12
1e-12
1e-12
1e-12
1e-12
1e-12
1e-12
1e-12
1e-12
1e-12
1e-12
1e-12
1e-12
1e-12
1e-12
1e-12
1e-12
1e-12
1e-12
1e-12
1e-12
1e-12
1e-12
1e-12
1e-12
1e-12
1e-12
1e-12
1e-12
1e-12
1e-12
1e-12
1e-12
1e-12
1e-12
1e-12
1e-12
1e-12
1e-12
1e-12
1e-12
1e-12
1e-12
1e-12
1e-12
1e-12
1e-12
1e-12
1e-12
1e-12
1e-12
1e-12
1e-12
1e-12
1e-12
1e-12
1e-12
1e-12
1e-12
1e-12
1e-12
1e-12
1e-12
1e-12
1e-12
1e-12
1e-12
1e-12
1e-12
1e-12
1e-12
1e-12
1e-12
1e-12
1e-12
1e-12
1e-12
1e-12
1e-12
1e-12
1e-12
1e-12
1e-12
1e-12
1e-12
1e-12
1e-12
1e-12
1e-12
1e-12
1e-12
1e-12
1e-12
1e-12
1e-12
1e-12
1e-12
1e-12
1e-12
1e-12
1e-12
1e-12
1e-12
1e-12
1e-12
1e-12
1e-12
1e-12
1e-12
1e-12
1e-12
1e-12
1e-12
1e-12
1e-12
1e-12
1e-12
1e-12
1e-12
1e-12
1e-12
1e-12
1e-12
1e-12
1e-12
1e-12
1e-12
1e-12
1e-12
1e-12
1e-12
1e-12
1e-12
1e-12
1e-12
1e-12
1e-12
1e-12
1e-12
1e-12
1e-12
1e-12
1e-12
1e-12
1e-12
1e-12
1e-12
1e-12
1e-12
1e-12
1e-12
1e-12
1e-12
1e-12
1e-12
1e-12
1e-12
1e-12
1e-12
1e-12
1e-12
1e-12
1e-12
1e-12
1e-12
1e-12
1e-12
1e-12
1e-12
1e-12
1e-12
1e-12
1e-12
1e-12
1e-12
1e-12
1e-12
1e-12
1e-12
1e-12
1e-12
1e-12
1e-12
1e-12
1e-12
1e-12
1e-12
1e-12
1e-12
1e-12
1e-12
1e-12
1e-12
1e-12
1e-12
1e-12
1e-12
1e-12
1e-12
1e-12
1e-12
1e-12
1e-12
1e-12
1e-12
1e-12
1e-12
1e-12
1e-12
1e-12
1e-12
1e-12
1e-12
1e-12
1e-12
1e-12
1e-12
1e-12
1e-12
1e-12
1e-12
1e-12
1e-12
1e-12
1e-12
1e-12
1e-12
1e-12
1e-12
1e-12
1e-12
1e-12
1e-12
1e-12
1e-12
1e-12
1e-12
1e-12
1e-12
1e-12
1e-12
1e-12
1e-12
1e-12
1e-12
1e-12
1e-12
1e-12
1e-12
1e-12
1e-12
1e-12
1e-12
1e-12
1e-12
1e-12
1e-12
1e-12
1e-12
1e-12
1e-12
1e-12
1e-12
1e-12
1e-12
1e-12
1e-12
1e-12
1e-12
1e-12
1e-12
1e-12
1e-12
1e-12
1e-12
1e-12
1e-12
1e-12
1e-12
1e-12
1e-12
1e-12
1e-12
1e-12
1e-12
1e-12
1e-12
1e-12
1e-12
1e-12
1e-12
1e-12
1e-12
1e-12
1e-12
1e-12
1e-12
1e-12
1e-12
1e-12
1e-12
1e-12
1e-12
1e-12
1e-12
1e-12
1e-12
1e-12
1e-12
1e-12
1e-12
1e-12
1e-12
1e-12
1e-12
1e-12
1e-12
1e-12
1e-12
1e-12
1e-12
1e-12
1e-12
1e-12
1e-12
1e-12
1e-12
1e-12
1e-12
1e-12
1e-12
1e-12
1e-12
1e-12
1e-12
1e-12
1e-12
1e-12
1e-12
1e-12
1e-12
1e-12
1e-12
1e-12
1e-12
1e-12
1e-12
1e-12
1e-12
1e-12
1e-12
1e-12
1e-12
1e-12
1e-12
1e-12
1e-12
1e-12
1e-12
1e-12
1e-12
1e-12
1e-12
1e-12
1e-12
1e-12
1e-12
1e-12
1e-12
1e-12
1e-12
1e-12
1e-12
1e-12
1e-12
1e-12
1e-12
1e-12
1e-12
1e-12
1e-12
1e-12
1e-12
1e-12
1e-12
1e-12
1e-12
1e-12
1e-12
1e-12
1e-12
1e-12
1e-12
SCALARS pressure float
LOOKUP_TABLE default
10995419.358762005
10940311.34835099
10892951.980974687
10851812.578065658
10815707.995395862
10783713.130624365
10755100.78844958
10729295.239926515
10705837.35502544
10684358.301107598
10664559.60592845
10646197.96855858
10629073.627070943
10613021.402261676
10597903.763823705
10583605.43212467
10570029.151515849
10557092.361806747
10544724.56178811
10532865.208720203
10521462.035067907
10510469.691774122
10499848.64844321
10489564.296735175
10479586.215357965
10469887.564255316
10460444.582635919
10451236.17090757
10442243.54076311
10433449.920909204
10424840.308456756
10416401.257969968
10408120.701726494
10399987.795969633
10391992.788908178
10384126.906996379
10376382.25664831
10368751.73904093
10361228.976063844
10353808.245801112
10346484.42619694
10339252.945774898
10332109.740458982
10325051.215691883
10318074.213167245
10311175.981593348
10304354.150989141
10297606.71008303
10290931.986442842
10284328.629013604
10277795.592780238
10271332.125305835
10264937.75492422
10258612.280388758
10252355.761798564
10246168.512638982
10240051.09278601
10234004.302334577
10228029.17611861
10222126.97879691
10216299.200383432
10210547.552103639
10204873.962460537
10199280.573394967
10193769.736424895
10188344.008648094
10183006.148491856
10177759.111092385
10172606.043185793
10167550.277391918
10162595.325772308
10157744.872544438
10153002.765836213
10148373.008368118
10143859.74695544
10139467.26073013
10135199.94799133
10131062.311605703
10127058.942893932
10123194.503957892
10119473.708424846
10115901.300610095
10112482.03312823
10109220.64301518
10106121.826458376
10103190.212270167
10100430.334279358
10097846.602856793
10095443.275831807
10093224.429096255
10091193.927229935
10089355.394514069
10087712.186726276
10086267.364129504
10085023.666076934
10083983.487653608
10083148.858762113
10082521.426033633
10082102.43790678
10081892.733165545
10752081.580924835
10746595.27248312
10737452.869292824
10725942.072084945
10712965.047938364
10699150.065706624
10684930.947156534
10670603.649376752
10656366.580444636
10642349.332640266
10628633.160696562
10615265.571502656
10602270.71011169
10589656.742979331
10577421.095350333
10565554.154869411
10554041.87902283
10542867.619545111
10532013.38801985
10521460.723330036
10511191.276105106
10501187.192702262
10491431.357871348
10481907.53846456
10472600.458493909
10463495.827174028
10454580.335359644
10445841.631310377
10437268.283499263
10428849.735872788
10420576.25931532
10412438.901887124
10404429.439561157
10396540.32858444
10388764.660166768
10381096.117903149
10373528.93813108
10366057.87328354
10358678.158205023
10351385.47933724
10344175.946643744
10337046.068121657
10329992.726738557
10323013.159630395
10316104.939398726
10309265.957351182
10302494.408536673
10295788.778434983
10289147.8311691
10282570.59911684
10276056.373806227
10269604.69798619
10263215.358770335
10256888.381757032
10250624.026033344
10244422.779973807
10238285.357747445
10232212.696447907
10226205.95376199
10220266.506091435
10214395.94704134
10208596.086186316
10202868.948022248
10197216.771007555
10191642.006593047
10186147.318134068
10180735.579572607
10175409.873770453
10170173.49036789
10165029.923035353
10159982.865978826
10155036.20955329
10150194.034832992
10145460.60698269
10140840.367271181
10136337.923567493
10131958.039161941
10127705.619759338
10123585.698500635
10119603.41888303
10115764.015467497
10112072.792287957
10108535.098907858
10105156.304108981
10101941.767243631
10098896.80733518
10096026.67007323
10093336.4929173
10090831.268596012
10088515.807365503
10086394.698468598
10084472.271312194
10082752.556950781
10081239.25052444
10079935.675345855
10078844.749357887
10077968.954686826
10077310.310992876
10076870.353266314
10076650.114634689
10645901.514130602
10644281.5653298
10641163.608050555
10636727.23957179
10631171.052609762
10624690.408747705
10617465.58660583
10609656.337635372
10601400.277670234
10592813.46765637
10583992.14671979
10575014.97937322
10565945.436687361
10556834.096112978
10547720.748175003
10538636.261755697
10529604.197308203
10520642.178472202
10511763.043365438
10502975.801317692
10494286.421590231
10485698.479332296
10477213.681696264
10468832.294290572
10460553.485360716
10452375.602455307
10444296.393955521
10436313.185759474
10428423.021619486
10420622.774111276
10412909.231942073
10405279.168248605
10397729.393664656
10390256.7972232
10382858.377573917
10375531.266521126
10368272.746500645
10361080.263300644
10353951.435077935
10346884.058515985
10339876.112805385
10332925.761993805
10326031.356144639
10319191.431656692
10312404.711027106
10305670.10228325
10298986.698263735
10292353.77589183
10285770.795554861
10279237.400678826
10272753.41756789
10266318.855562031
10259933.907552712
10253598.950884962
10247314.548664441
10241081.451479264
10234900.59953839
10228773.125220703
10222700.356021386
10216683.81787448
10210725.238822492
10204826.552995117
10198989.904849712
10193217.653615631
10187512.377872813
10181876.880182149
10176314.191670688
10170827.57645885
10165420.535799377
10160096.811778655
10154860.39041059
10149715.503931291
10144666.632079918
10139718.502127465
10134876.087391457
10130144.603951488
10125529.505258944
10121036.474315448
10116671.413080018
10112440.42875626
10108349.816610321
10104406.03897987
10100615.700156877
10096985.51686475
10093522.284106534
10090232.836237663
10087124.003216699
10084202.56211184
10081475.184090726
10078948.377294773
10076628.426194727
10074521.32823555
10072632.728798576
10070967.855725652
10069531.454849469
10068327.728139415
10067360.276183752
10066632.046767421
10066145.29125254
10065901.530313205
10580220.167356392
10579418.070137555
10577834.62679644
10575507.869140094
10572488.479781987
10568835.208784232
10564610.896769695
10559879.300760983
10554702.726113984
10549140.37574051
10543247.292992683
10537073.770725982
10530665.110476231
10524061.633336466
10517298.863032892
10510407.819346784
10503415.375306234
10496344.644168366
10489215.372235557
10482044.321298227
10474845.630337225
10467631.150414782
10460410.7497627
10453192.588220645
10445983.361616166
10438788.517595964
10431612.444958001
10424458.638807112
10417329.843945388
10410228.178874565
10403155.242675515
10396112.206872143
10389099.894205851
10382118.846057706
10375169.380068805
10368251.639331428
10361365.63435818
10354511.278885474
10347688.420431875
10340896.86641094
10334136.406491598
10327406.831805592
10320707.951520208
10314039.60722398
10307401.685512219
10300794.129106868
10294216.946800442
10287670.22247535
10281154.123417273
10274668.90811342
10268214.93370265
10261792.663224394
10255402.672795858
10249045.658832273
10242722.44541201
10236433.991877118
10230181.400749598
10223965.926034324
10217788.981970524
10211652.15228469
10205557.19998842
10199506.077754611
10193500.938894115
10187544.148942135
10181638.297848709
10175786.212750193
10169990.971278189
10164255.915338196
10158584.665262096
10152981.134205548
10147449.542623274
10141994.43261113
10136620.681853903
10131333.51686119
10126138.525110781
10121041.665649896
10116049.277629744
10111168.086169947
10106405.204867568
10101768.134184092
10097264.754865957
10092903.315485377
10088692.413134238
10084640.966272786
10080758.178735742
10077053.493942542
10073536.538457477
10070217.054212822
10067104.818956403
10064209.55482642
10061540.825399224
10059107.922103873
10056919.741545174
10054984.656008307
10053310.380199851
10051903.838061176
10050771.03419743
10049916.935005702
10049345.364850158
10049058.922508325
10534591.251053132
10534088.228002273
10533088.503423134
10531604.291252406
10529652.947945533
10527256.034240253
10524438.306787897
10521226.72984386
10517649.567719579
10513735.59318339
10509513.427237408
10505011.011655096
10500255.206515452
10495271.499655165
10490083.812454212
10484714.385798905
10479183.730737254
10473510.629738018
10467712.17621873
10461803.84187057
10455799.5631203
10449711.839738168
10443551.840078667
10437329.508711379
10431053.673264721
10424732.148180667
10418371.833783787
10411978.809625655
10405558.421498775
10399115.36184358
10392653.74351707
10386177.167068804
10379688.781793479
10373191.34091109
10366687.251275579
10360178.618038464
10353667.284702132
10347154.868992722
10340642.794969222
10334132.32176612
10327624.569344468
10321120.54160183
10314621.147166815
10308127.21817967
10301639.527337013
10295158.803457346
10288685.745803893
10282221.037383486
10275765.357424244
10269319.393220883
10262883.851524526
10256459.469643747
10250047.026415348
10243647.353196569
10237261.345025271
10230889.972090693
10224534.291654652
10218195.460561072
10211874.74847056
10205573.551955834
10199293.40959285
10193036.01818128
10186803.250225674
10180597.172804952
10174420.067951903
10168274.454655476
10162163.11258538
10156089.107620308
10150055.819235953
10144066.969775617
10138126.655582665
10132239.379918005
10126410.08751516
10120644.200537268
10114947.655592129
10109326.941330023
10103789.135991778
10098341.944089
10092993.731182545
10087753.555478375
10082631.194682777
10077637.166254839
10072782.738869473
10068079.932570666
10063541.504768936
10059180.918944094
10055012.29268809
10051050.321607888
10047310.175661262
10043807.364788318
10040557.571307711
10037576.44755592
10034879.37874606
10032481.213080665
10030395.963805731
10028636.491109692
10027214.175410625
10026138.597339433
10025417.24310491
10025055.256157683
10501537.911021331
10501175.924074098
10500454.56983956
10499378.991768349
10497956.676069267
10496197.203373209
10494111.954098247
10491713.788432818
10489016.719622925
10486035.5958711
10482785.80239046
10479282.991517477
10475542.84557081
10471580.874490567
10467412.248234529
10463051.662409652
10458513.234607887
10453810.428309042
10448956.000923637
10443961.97249566
10438839.611700028
10433599.435995823
10428251.223089334
10422804.031186517
10417266.225848233
10411645.511586092
10405948.966640921
10400183.079663
10394353.787260126
10388466.511595435
10382526.197402447
10376537.347942078
10370504.059557693
10364430.054592598
10358318.712522484
10352173.099226039
10345995.994372977
10339789.916952237
10333557.14899662
10327299.757585034
10321019.615222033
10314718.41870729
10308397.70661677
10302058.875523183
10295703.195087135
10289331.82215255
10282945.813981244
10276546.140762467
10270133.697534071
10263709.315653294
10257273.773956941
10250827.809753587
10244372.129794348
10237907.421373945
10231434.3637205
10224953.639840849
10218465.948998211
10211972.020011084
10205472.625576092
10198968.597833468
10192460.845411833
10185950.372208752
10179438.298185272
10172925.88247589
10166414.54913958
10159905.915902492
10153401.826267011
10146904.385384655
10140416.000109361
10133939.423661131
10127477.805334654
10121034.745679492
10114614.357552651
10108221.333394561
10101861.018997725
10095539.49391372
10089263.658467107
10083041.32709987
10076881.327440424
10070793.604058348
10064789.325308135
10058880.990960032
10053082.537440801
10047409.43644162
10041878.781380024
10036509.354724769
10031321.667523868
10026337.960663637
10021582.15552405
10017079.739941793
10012857.573995866
10008943.599459726
10005366.437335487
10002154.860391488
9999337.13293917
9996940.21923392
9994988.875927074
9993504.663756363
9992504.939177237
9992001.916126385
10477534.2446703
10477247.802328467
10476676.232172918
10475822.132981181
10474689.329117425
10473282.786978735
10471608.511170259
10469673.425633369
10467485.245074648
10465052.341779273
10462383.612352058
10459488.34822205
10456376.112965606
10453056.62872092
10449539.673235828
10445834.9884426
10441952.200905528
10437900.754044048
10433689.851692881
10429328.412312273
10424825.032994108
10420187.962310605
10415425.081008192
10410543.889548365
10405551.501528185
10400454.642067272
10395259.650316842
10389972.485324102
10384598.734566854
10379143.624554688
10373612.032972392
10368008.501915824
10362337.2518397
10356602.195899688
10350806.954427665
10344954.869329132
10339049.018235689
10333092.228283696
10327087.089423189
10321035.967189372
10314941.014893094
10308804.185207255
10302627.241143454
10296411.76642818
10290159.175300658
10283870.721765768
10277547.508345509
10271190.49438193
10264800.503953407
10258378.233475162
10251924.259064399
10245439.043760551
10238922.944702487
10232376.220377412
10225799.038071007
10219191.481665675
10212553.559953932
10205885.21565773
10199186.335372368
10192456.760686386
10185696.300767073
10178904.74674617
10172081.888292603
10165227.532819932
10158341.527846718
10151423.787109377
10144474.321120508
10137493.272972401
10130480.960306147
10123437.92450282
10116364.988303818
10109263.323233044
10102134.528371375
10094980.72222054
10087804.64958264
10080609.8055625
10073400.578958085
10066182.417416092
10058962.016764086
10051747.536841718
10044548.845880793
10037377.794943536
10030248.523010805
10023177.791873017
10016185.34783255
10009294.304146519
10002531.533843027
9995928.056703342
9989519.39645367
9983345.874187049
9977452.7914393
9971890.4410659
9966713.866418967
9961982.270410322
9957757.958395842
9954104.687398132
9951085.29804007
9948758.540383754
9947175.09704266
9946372.999823833
10460691.636865161
10460447.875925824
10459961.12041094
10459232.8909946
10458265.439038927
10457061.712328862
10455625.311452668
10453960.438379731
10452071.838942744
10449964.740983553
10447644.789883489
10445117.983087521
10442390.605066389
10439469.163961515
10436360.33094053
10433070.883071639
10429607.6503134
10425977.46702125
10422187.128198233
10418243.350567758
10414152.738421792
10409921.754098013
10405556.69286256
10401063.661919039
10396448.563226473
10391717.079786481
10386874.665050453
10381926.535097979
10376877.663246589
10371732.776767273
10366496.355399188
10361172.63137845
10355765.590718959
10350278.975507103
10344716.286995629
10339080.789304959
10333375.513562132
10327603.26232804
10321766.614182629
10315867.928355247
10309909.349303259